<UPF version="">
  <PP_INFO>
    From a Trail & Needs tabulated PP for CASINO
    Author: unknown
    Generation date: unknown
    Pseudopotential type: NC
    Element: H
    Functional: HF

    Suggested minimum cutoff for wavefunctions:   0. Ry
    Suggested minimum cutoff for charge density:   0. Ry
    The Pseudo was generated with a Non-Relativistic Calculation
    L component and cutoff radius for Local Potential:  2   0.0000

    Valence configuration: 
    nl pn  l   occ       Rcut    Rcut US       E pseu
    1s  1  0  1.00      0.000      0.000     0.000000

    Generation configuration: not available.
    Comment:
    Info: automatically converted from CASINO Tabulated format
  </PP_INFO>
  <!--                               -->
  <!-- END OF HUMAN READABLE SECTION -->
  <!--                               -->
  <PP_HEADER generated="From a Trail &amp; Needs tabulated PP for CASINO"
             author="unknown"
             date="unknown"
             comment="Info: automatically converted from CASINO Tabulated format"
             element="H "
             pseudo_type="NC"
             relativistic="no"
             is_ultrasoft="F"
             is_paw="F"
             is_coulomb="F"
             has_so="F"
             has_wfc="F"
             has_gipaw="F"
             paw_as_gipaw="F"
             core_correction="F"
             functional="HF                       "
             z_valence="1.000000000000000E+000"
             total_psenergy="0.000000000000000E+000"
             wfc_cutoff="0.000000000000000E+000"
             rho_cutoff="0.000000000000000E+000"
             l_max="1"
             l_max_rho="0"
             l_local="2"
             mesh_size="1405"
             number_of_wfc="1"
             number_of_proj="1"/>
  <PP_MESH dx="1.333333333333333E-002" mesh="1405" xmin="-7.000000000000000E+000" rmax="1.011705151541880E+002"
zmesh="1.000000000000000E+000">
    <PP_R type="real" size="1405" columns="4">
 0.000000000000000E+000  1.006696395325680E-008  2.026905292416190E-008  3.060808064429110E-008 
 4.108588519024720E-008  5.170432931043470E-008  6.246530075621891E-008  7.337071261753190E-008 
 8.442250366298280E-008  9.562263868453160E-008  1.069731088467920E-007  1.184759320410200E-007 
 1.301331532438570E-007  1.419468448808870E-007  1.539191071950700E-007  1.660520686201270E-007 
 1.783478861589340E-007  1.908087457669930E-007  2.034368627410530E-007  2.162344821129470E-007 
 2.292038790487140E-007  2.423473592530770E-007  2.556672593793580E-007  2.691659474448810E-007 
 2.828458232519670E-007  2.967093188145670E-007  3.107588987906260E-007  3.249970609202550E-007 
 3.394263364697760E-007  3.540492906817360E-007  3.688685232309520E-007  3.838866686866850E-007 
 3.991063969810150E-007  4.145304138835010E-007  4.301614614822170E-007  4.460023186712360E-007 
 4.620558016446690E-007  4.783247643973260E-007  4.948120992321000E-007  5.115207372741640E-007 
 5.284536489920640E-007  5.456138447258150E-007  5.630043752220750E-007  5.806283321765140E-007 
 5.984888487834510E-007  6.165891002928810E-007  6.349323045749640E-007  6.535217226921060E-007 
 6.723606594787120E-007  6.914524641287160E-007  7.108005307910060E-007  7.304082991728340E-007 
 7.502792551513350E-007  7.704169313932380E-007  7.908249079829150E-007  8.115068130588400E-007 
 8.324663234586120E-007  8.537071653726120E-007  8.752331150064600E-007  8.970479992523400E-007 
 9.191556963693490E-007  9.415601366729810E-007  9.642653032338521E-007  9.872752325858171E-007 
 1.010594015443590E-006  1.034225797429970E-006  1.058174779812910E-006  1.082445220252330E-006 
 1.107041433557120E-006  1.131967792452220E-006  1.157228728355960E-006  1.182828732167930E-006 
 1.208772355067340E-006  1.235064209322130E-006  1.261708969109000E-006  1.288711371344280E-006 
 1.316076216526170E-006  1.343808369588110E-006  1.371912760763670E-006  1.400394386463090E-006 
 1.429258310161500E-006  1.458509663299140E-006  1.488153646193610E-006  1.518195528964380E-006 
 1.548640652469750E-006  1.579494429256290E-006  1.610762344521140E-006  1.642449957087140E-006 
 1.674562900391090E-006  1.707106883485280E-006  1.740087692052410E-006  1.773511189434190E-006 
 1.807383317673760E-006  1.841710098572000E-006  1.876497634758160E-006  1.911752110774730E-006 
 1.947479794176960E-006  1.983687036647120E-006  2.020380275123660E-006  2.057566032945640E-006 
 2.095250921012380E-006  2.133441638958780E-006  2.172144976346410E-006  2.211367813870500E-006 
 2.251117124583260E-006  2.291399975133500E-006  2.332223527022980E-006  2.373595037879540E-006 
 2.415521862747410E-006  2.458011455394780E-006  2.501071369638900E-006  2.544709260689060E-006 
 2.588932886507490E-006  2.633750109188570E-006  2.679168896356610E-006  2.725197322582280E-006 
 2.771843570818140E-006  2.819115933853390E-006  2.867022815788180E-006  2.915572733527710E-006 
 2.964774318296330E-006  3.014636317172030E-006  3.065167594641490E-006  3.116377134176010E-006 
 3.168274039828600E-006  3.220867537852520E-006  3.274166978341480E-006  3.328181836891940E-006 
 3.382921716287700E-006  3.438396348207040E-006  3.494615594952840E-006  3.551589451205940E-006 
 3.609328045801940E-006  3.667841643531950E-006  3.727140646967460E-006  3.787235598309700E-006 
 3.848137181263860E-006  3.909856222938410E-006  3.972403695769990E-006  4.035790719474040E-006 
 4.100028563021750E-006  4.165128646643350E-006  4.231102543858530E-006  4.297961983533860E-006 
 4.365718851968060E-006  4.434385195005070E-006  4.503973220175620E-006  4.574495298867470E-006 
 4.645963968524780E-006  4.718391934877060E-006  4.791792074197980E-006  4.866177435594510E-006 
 4.941561243326810E-006  5.017956899159240E-006  5.095377984742940E-006  5.173838264030370E-006 
 5.253351685722260E-006  5.333932385747440E-006  5.415594689775940E-006  5.498353115765760E-006 
 5.582222376543940E-006  5.667217382422170E-006  5.753353243847580E-006  5.840645274089060E-006 
 5.929108991959670E-006  6.018760124575580E-006  6.109614610152040E-006  6.201688600836890E-006 
 6.294998465582080E-006  6.389560793053760E-006  6.485392394581440E-006  6.582510307146670E-006 
 6.680931796411910E-006  6.780674359790030E-006  6.881755729554990E-006  6.984193875994310E-006 
 7.088007010603820E-006  7.193213589325320E-006  7.299832315827670E-006  7.407882144831930E-006 
 7.517382285481190E-006  7.628352204755500E-006  7.740811630932790E-006  7.854780557096111E-006 
 7.970279244688081E-006  8.087328227112890E-006  8.205948313386810E-006  8.326160591837610E-006 
 8.447986433853611E-006  8.571447497683140E-006  8.696565732284950E-006  8.823363381230259E-006 
 8.951862986657290E-006  9.082087393278780E-006  9.214059752443330E-006  9.347803526251250E-006 
 9.483342491725710E-006  9.620700745039759E-006  9.759902705800190E-006  9.900973121388890E-006 
 1.004393707136240E-005  1.018881997191060E-005  1.033564758037510E-005  1.048444599982860E-005 
 1.063524168371540E-005  1.078806144055420E-005  1.094293243870420E-005  1.109988221119530E-005 
 1.125893866062250E-005  1.142013006410700E-005  1.158348507832280E-005  1.174903274459140E-005 
 1.191680249404530E-005  1.208682415285940E-005  1.225912794755420E-005  1.243374451036930E-005 
 1.261070488470910E-005  1.279004053066180E-005  1.297178333059220E-005  1.315596559481010E-005 
 1.334262006731440E-005  1.353177993161380E-005  1.372347881662710E-005  1.391775080266070E-005 
 1.411463042746830E-005  1.431415269239070E-005  1.451635306857830E-005  1.472126750329700E-005 
 1.492893242631950E-005  1.513938475640130E-005  1.535266190784410E-005  1.556880179714780E-005 
 1.578784284975080E-005  1.600982400686150E-005  1.623478473238150E-005  1.646276501992110E-005 
 1.669380539990970E-005  1.692794694680110E-005  1.716523128637580E-005  1.740570060314140E-005 
 1.764939764783200E-005  1.789636574500850E-005  1.814664880076080E-005  1.840029131051360E-005 
 1.865733836693670E-005  1.891783566796150E-005  1.918182952490540E-005  1.944936687070500E-005 
 1.972049526825970E-005  1.999526291888750E-005  2.027371867089460E-005  2.055591202825900E-005 
 2.084189315943200E-005  2.113171290625670E-005  2.142542279300710E-005  2.172307503554770E-005 
 2.202472255061670E-005  2.233041896523330E-005  2.264021862623210E-005  2.295417660992420E-005 
 2.327234873188910E-005  2.359479155689780E-005  2.392156240896830E-005  2.425271938155710E-005 
 2.458832134788710E-005  2.492842797141410E-005  2.527309971643350E-005  2.562239785882990E-005 
 2.597638449697100E-005  2.633512256274680E-005  2.669867583275840E-005  2.706710893965580E-005 
 2.744048738362820E-005  2.781887754404920E-005  2.820234669127720E-005  2.859096299861490E-005 
 2.898479555442940E-005  2.938391437443460E-005  2.978839041413860E-005  3.019829558145800E-005 
 3.061370274950240E-005  3.103468576952900E-005  3.146131948407220E-005  3.189367974024950E-005 
 3.233184340324520E-005  3.277588836997560E-005  3.322589358293750E-005  3.368193904424300E-005 
 3.414410582984190E-005  3.461247610393540E-005  3.508713313358370E-005  3.556816130350880E-005 
 3.605564613109680E-005  3.654967428160090E-005  3.705033358354910E-005  3.755771304435800E-005 
 3.807190286615700E-005  3.859299446182420E-005  3.912108047123810E-005  3.965625477774650E-005 
 4.019861252485810E-005  4.074825013315630E-005  4.130526531744130E-005  4.186975710410170E-005 
 4.244182584871980E-005  4.302157325391230E-005  4.360910238741160E-005  4.420451770038880E-005 
 4.480792504602330E-005  4.541943169832130E-005  4.603914637118710E-005  4.666717923775030E-005 
 4.730364194995240E-005  4.794864765839630E-005  4.860231103246210E-005  4.926474828069380E-005 
 4.993607717145770E-005  5.061641705388050E-005  5.130588887906630E-005  5.200461522160010E-005 
 5.271272030133840E-005  5.343033000549390E-005  5.415757191101510E-005  5.489457530726720E-005 
 5.564147121901720E-005  5.639839242972790E-005  5.716547350516340E-005  5.794285081731310E-005 
 5.873066256863550E-005  5.952904881662780E-005  6.033815149872600E-005  6.115811445753770E-005 
 6.198908346641520E-005  6.283120625537090E-005  6.368463253734081E-005  6.454951403480051E-005 
 6.542600450673850E-005  6.631425977599170E-005  6.721443775694740E-005  6.812669848361749E-005 
 6.905120413808930E-005  6.998811907935879E-005  7.093760987254960E-005  7.189984531852571E-005 
 7.287499648390080E-005  7.386323673145030E-005  7.486474175093200E-005  7.587968959032061E-005 
 7.690826068746070E-005  7.795063790214500E-005  7.900700654862400E-005  8.007755442855030E-005 
 8.116247186436639E-005  8.226195173314071E-005  8.337618950085680E-005  8.450538325716340E-005 
 8.564973375059141E-005  8.680944442424230E-005  8.798472145195700E-005  8.917577377496920E-005 
 9.038281313905110E-005  9.160605413215730E-005  9.284571422257530E-005  9.410201379758600E-005 
 9.537517620264480E-005  9.666542778108810E-005  9.797299791437250E-005  9.929811906285439E-005 
 1.006410268071170E-004  1.020019598898520E-004  1.033811602583020E-004  1.047788731072770E-004 
 1.061953469227420E-004  1.076308335259950E-004  1.090855881184350E-004  1.105598693269320E-004 
 1.120539392498070E-004  1.135680635034250E-004  1.151025112694180E-004  1.166575553425430E-004 
 1.182334721791740E-004  1.198305419464550E-004  1.214490485721070E-004  1.230892797949040E-004 
 1.247515272158280E-004  1.264360863499080E-004  1.281432566787620E-004  1.298733417038330E-004 
 1.316266490003480E-004  1.334034902720010E-004  1.352041814063630E-004  1.370290425310460E-004 
 1.388783980706120E-004  1.407525768042490E-004  1.426519119242240E-004  1.445767410951170E-004 
 1.465274065138490E-004  1.485042549705210E-004  1.505076379100650E-004  1.525379114947260E-004 
 1.545954366673760E-004  1.566805792156870E-004  1.587937098371600E-004  1.609352042050260E-004 
 1.631054430350350E-004  1.653048121531400E-004  1.675337025640870E-004  1.697925105209320E-004 
 1.720816375954810E-004  1.744014907496890E-004  1.767524824080040E-004  1.791350305306910E-004 
 1.815495586881350E-004  1.839964961361460E-004  1.864762778922700E-004  1.889893448131290E-004 
 1.915361436727930E-004  1.941171272422130E-004  1.967327543697090E-004  1.993834900625490E-004 
 2.020698055696140E-004  2.047921784651820E-004  2.075510927338260E-004  2.103470388564600E-004 
 2.131805138975360E-004  2.160520215934140E-004  2.189620724419130E-004  2.219111837930700E-004 
 2.248998799411160E-004  2.279286922176810E-004  2.309981590862590E-004  2.341088262379320E-004 
 2.372612466883880E-004  2.404559808762300E-004  2.436935967626180E-004  2.469746699322360E-004 
 2.502997836956230E-004  2.536695291928720E-004  2.570845054987250E-004  2.605453197290730E-004 
 2.640525871488960E-004  2.676069312816390E-004  2.712089840200640E-004  2.748593857385900E-004 
 2.785587854071360E-004  2.823078407064980E-004  2.861072181452710E-004  2.899575931783370E-004 
 2.938596503269560E-004  2.978140833004540E-004  3.018215951195510E-004  3.058828982413480E-004 
 3.099987146859860E-004  3.141697761650060E-004  3.183968242114330E-004  3.226806103116110E-004 
 3.270218960387930E-004  3.314214531885440E-004  3.358800639159440E-004  3.403985208746430E-004 
 3.449776273577790E-004  3.496181974407870E-004  3.543210561261260E-004  3.590870394899480E-004 
 3.639169948307370E-004  3.688117808199420E-004  3.737722676546290E-004  3.787993372121910E-004 
 3.838938832071210E-004  3.890568113499040E-004  3.942890395080280E-004  3.995914978691700E-004 
 4.049651291065600E-004  4.104108885465680E-004  4.159297443385520E-004  4.215226776269630E-004 
 4.271906827257840E-004  4.329347672952940E-004  4.387559525212120E-004  4.446552732962420E-004 
 4.506337784040610E-004  4.566925307057660E-004  4.628326073288340E-004  4.690550998586160E-004 
 4.753611145323930E-004  4.817517724360500E-004  4.882282097033780E-004  4.947915777180610E-004 
 5.014430433183650E-004  5.081837890045810E-004  5.150150131492530E-004  5.219379302102190E-004 
 5.289537709465240E-004  5.360637826372210E-004  5.432692293031150E-004  5.505713919314790E-004 
 5.579715687037910E-004  5.654710752265210E-004  5.730712447650280E-004  5.807734284805770E-004 
 5.885789956705620E-004  5.964893340119280E-004  6.045058498078820E-004  6.126299682379000E-004 
 6.208631336111020E-004  6.292068096230130E-004  6.376624796157920E-004  6.462316468419270E-004 
 6.549158347314950E-004  6.637165871629940E-004  6.726354687378130E-004  6.816740650583860E-004 
 6.908339830100900E-004  7.001168510469070E-004  7.095243194809360E-004  7.190580607757870E-004 
 7.287197698439130E-004  7.385111643479240E-004  7.484339850059690E-004  7.584899959011859E-004 
 7.686809847953290E-004  7.790087634466009E-004  7.894751679317390E-004  8.000820589724390E-004 
 8.108313222661560E-004  8.217248688213430E-004  8.327646352971880E-004  8.439525843479200E-004 
 8.552907049717240E-004  8.667810128643530E-004  8.784255507774700E-004  8.902263888818180E-004 
 9.021856251352540E-004  9.143053856557180E-004  9.265878250992240E-004  9.390351270429110E-004 
 9.516495043732420E-004  9.644331996794090E-004  9.773884856520241E-004  9.905176654871610E-004 
 1.003823073295810E-003  1.017307074518850E-003  1.030972066347570E-003  1.044820478149840E-003 
 1.058854771902010E-003  1.073077442626590E-003  1.087491018835840E-003  1.102098062981280E-003 
 1.116901171909210E-003  1.131902977322450E-003  1.147106146248120E-003  1.162513381511860E-003 
 1.178127422218290E-003  1.193951044237990E-003  1.209987060701010E-003  1.226238322496940E-003 
 1.242707718781800E-003  1.259398177491640E-003  1.276312665863060E-003  1.293454190960790E-003 
 1.310825800212200E-003  1.328430581949130E-003  1.346271665956930E-003  1.364352224030860E-003 
 1.382675470539960E-003  1.401244662998550E-003  1.420063102645310E-003  1.439134135030170E-003 
 1.458461150609120E-003  1.478047585346950E-003  1.497896921328090E-003  1.518012687375650E-003 
 1.538398459678790E-003  1.559057862428520E-003  1.579994568461960E-003  1.601212299915310E-003 
 1.622714828885610E-003  1.644505978101300E-003  1.666589621601870E-003  1.688969685426540E-003 
 1.711650148312270E-003  1.734635042401090E-003  1.757928453956920E-003  1.781534524092060E-003 
 1.805457449503370E-003  1.829701483218370E-003  1.854270935351360E-003  1.879170173869660E-003 
 1.904403625370120E-003  1.929975775866140E-003  1.955891171585170E-003  1.982154419776910E-003 
 2.008770189532440E-003  2.035743212614260E-003  2.063078284297510E-003  2.090780264222490E-003 
 2.118854077258590E-003  2.147304714379840E-003  2.176137233552220E-003  2.205356760632860E-003 
 2.234968490281290E-003  2.264977686883020E-003  2.295389685485350E-003  2.326209892745910E-003 
 2.357443787893840E-003  2.389096923703870E-003  2.421174927483510E-003  2.453683502073470E-003 
 2.486628426861520E-003  2.520015558809950E-003  2.553850833496820E-003  2.588140266171180E-003 
 2.622889952822490E-003  2.658106071264350E-003  2.693794882232770E-003  2.729962730499260E-003 
 2.766616045998780E-003  2.803761344972820E-003  2.841405231127950E-003  2.879554396809720E-003 
 2.918215624192500E-003  2.957395786485230E-003  2.997101849153260E-003  3.037340871156770E-003 
 3.078120006205640E-003  3.119446504031290E-003  3.161327711675500E-003  3.203771074796620E-003 
 3.246784138993180E-003  3.290374551145470E-003  3.334550060774890E-003  3.379318521421710E-003 
 3.424687892041300E-003  3.470666238419030E-003  3.517261734604250E-003  3.564482664363440E-003 
 3.612337422652940E-003  3.660834517111360E-003  3.709982569572110E-003  3.759790317596190E-003 
 3.810266616025530E-003  3.861420438557250E-003  3.913260879338980E-003  3.965797154585590E-003 
 4.019038604217740E-003  4.072994693522230E-003  4.127675014834840E-003  4.183089289245600E-003 
 4.239247368327010E-003  4.296159235885480E-003  4.353835009736250E-003  4.412284943502120E-003 
 4.471519428436380E-003  4.531548995270150E-003  4.592384316084500E-003  4.654036206207820E-003 
 4.716515626138510E-003  4.779833683493530E-003  4.844001634983210E-003  4.909030888412360E-003 
 4.974933004708410E-003  5.041719699976720E-003  5.109402847583460E-003  5.177994480266460E-003 
 5.247506792274420E-003  5.317952141534780E-003  5.389343051850700E-003  5.461692215127610E-003 
 5.535012493629530E-003  5.609316922265730E-003  5.684618710908150E-003  5.760931246739730E-003 
 5.838268096634510E-003  5.916643009569490E-003  5.996069919068940E-003  6.076562945681530E-003 
 6.158136399490650E-003  6.240804782658480E-003  6.324582792004220E-003  6.409485321616840E-003 
 6.495527465502970E-003  6.582724520270410E-003  6.671091987847410E-003  6.760645578238720E-003 
 6.851401212318510E-003  6.943375024660750E-003  7.036583366407630E-003  7.131042808176530E-003 
 7.226770143005880E-003  7.323782389340660E-003  7.422096794057930E-003  7.521730835533040E-003 
 7.622702226746860E-003  7.725028918434920E-003  7.828729102278539E-003  7.933821214139099E-003 
 8.040323937335480E-003  8.148256205965661E-003  8.257637208272739E-003  8.368486390056371E-003 
 8.480823458129691E-003  8.594668383822879E-003  8.710041406533690E-003  8.826963037325559E-003 
 8.945454062574170E-003  9.065535547662720E-003  9.187228840727070E-003  9.310555576450920E-003 
 9.435537679912110E-003  9.562197370480410E-003  9.690557165767770E-003  9.820639885631409E-003 
 9.952468656230789E-003  1.008606691413900E-002  1.022145841050930E-002  1.035866721529770E-002 
 1.049771772154190E-002  1.063863464969810E-002  1.078144305203590E-002  1.092616831709180E-002 
 1.107283617418300E-002  1.122147269798130E-002  1.137210431314930E-002  1.152475779903750E-002 
 1.167946029444530E-002  1.183623930244620E-002  1.199512269527660E-002  1.215613871929150E-002 
 1.231931599998600E-002  1.248468354708420E-002  1.265227075969650E-002  1.282210743154680E-002 
 1.299422375626830E-002  1.316865033277210E-002  1.334541817068680E-002  1.352455869587140E-002 
 1.370610375600210E-002  1.389008562623440E-002  1.407653701494090E-002  1.426549106952630E-002 
 1.445698138232020E-002  1.465104199654910E-002  1.484770741238900E-002  1.504701259309830E-002 
 1.524899297123410E-002  1.545368445495120E-002  1.566112343438590E-002  1.587134678812510E-002 
 1.608439188976330E-002  1.630029661454640E-002  1.651909934610500E-002  1.674083898327900E-002 
 1.696555494703220E-002  1.719328718746120E-002  1.742407619089740E-002  1.765796298710470E-002 
 1.789498915657420E-002  1.813519683791570E-002  1.837862873534970E-002  1.862532812629900E-002 
 1.887533886908300E-002  1.912870541071440E-002  1.938547279480120E-002  1.964568666955460E-002 
 1.990939329590440E-002  2.017663955572320E-002  2.044747296016090E-002  2.072194165809160E-002 
 2.100009444467360E-002  2.128198077002360E-002  2.156765074800850E-002  2.185715516515470E-002 
 2.215054548967640E-002  2.244787388062640E-002  2.274919319716840E-002  2.305455700797450E-002 
 2.336401960074850E-002  2.367763599187770E-002  2.399546193621310E-002  2.431755393698190E-002 
 2.464396925583250E-002  2.497476592301460E-002  2.531000274769590E-002  2.564973932841710E-002 
 2.599403606368710E-002  2.634295416272150E-002  2.669655565632330E-002  2.705490340791170E-002 
 2.741806112469740E-002  2.778609336900870E-002  2.815906556976950E-002  2.853704403413110E-002 
 2.892009595926060E-002  2.930828944428670E-002  2.970169350240700E-002  3.010037807315680E-002 
 3.050441403484320E-002  3.091387321714590E-002  3.132882841388660E-002  3.174935339597100E-002 
 3.217552292450360E-002  3.260741276407840E-002  3.304509969624890E-002  3.348866153317810E-002 
 3.393817713147190E-002  3.439372640619820E-002  3.485539034509470E-002  3.532325102296630E-002 
 3.579739161627690E-002  3.627789641793650E-002  3.676485085228620E-002  3.725834149028600E-002 
 3.775845606490440E-002  3.826528348671630E-002  3.877891385970960E-002  3.929943849730310E-002 
 3.982694993858110E-002  4.036154196474490E-002  4.090330961578480E-002  4.145234920737670E-002 
 4.200875834800530E-002  4.257263595631660E-002  4.314408227870370E-002  4.372319890712910E-002 
 4.431008879718520E-002  4.490485628639830E-002  4.550760711277740E-002  4.611844843361240E-002 
 4.673748884452480E-002  4.736483839877360E-002  4.800060862682060E-002  4.864491255615860E-002 
 4.929786473140550E-002  4.995958123466760E-002  5.063017970617710E-002  5.130977936520640E-002 
 5.199850103126240E-002  5.269646714556660E-002  5.340380179282170E-002  5.412063072327270E-002 
 5.484708137506160E-002  5.558328289688430E-002  5.632936617095040E-002  5.708546383625140E-002 
 5.785171031214130E-002  5.862824182223410E-002  5.941519641862110E-002  6.021271400641430E-002 
 6.102093636861860E-002  6.184000719133840E-002  6.267007208932150E-002  6.351127863184711E-002 
 6.436377636896050E-002  6.522771685806020E-002  6.610325369084180E-002  6.699054252060410E-002 
 6.788974108992010E-002  6.880100925868160E-002  6.972450903251870E-002  7.066040459160131E-002 
 7.160886231982670E-002  7.257005083440060E-002  7.354414101581250E-002  7.453130603821570E-002 
 7.553172140021409E-002  7.654556495606250E-002  7.757301694728561E-002  7.861426003472120E-002 
 7.966947933099390E-002  8.073886243342430E-002  8.182259945738070E-002  8.292088307007681E-002 
 8.403390852482570E-002  8.516187369575060E-002  8.630497911296391E-002  8.746342799821689E-002 
 8.863742630102930E-002  8.982718273530239E-002  9.103290881642490E-002  9.225481889887560E-002 
 9.349313021433189E-002  9.474806291028900E-002  9.601984008919801E-002  9.730868784812910E-002 
 9.861483531896760E-002  9.993851470914809E-002  1.012799613429370E-001  1.026394137032700E-001 
 1.040171134741470E-001  1.054133055835980E-001  1.068282382472340E-001  1.082621630123650E-001 
 1.097153348027250E-001  1.111880119637930E-001  1.126804563087220E-001  1.141929331648810E-001 
 1.157257114210290E-001  1.172790635751130E-001  1.188532657827210E-001  1.204485979061670E-001 
 1.220653435642530E-001  1.237037901826880E-001  1.253642290451860E-001  1.270469553452500E-001 
 1.287522682386570E-001  1.304804708966320E-001  1.322318705597560E-001  1.340067785925830E-001 
 1.358055105389920E-001  1.376283861782890E-001  1.394757295820550E-001  1.413478691717610E-001 
 1.432451377771540E-001  1.451678726954270E-001  1.471164157511860E-001  1.490911133572160E-001 
 1.510923165760710E-001  1.531203811824810E-001  1.551756677266090E-001  1.572585415981420E-001 
 1.593693730912530E-001  1.615085374704340E-001  1.636764150372090E-001  1.658733911977430E-001 
 1.680998565313630E-001  1.703562068599920E-001  1.726428433185210E-001  1.749601724261180E-001 
 1.773086061585080E-001  1.796885620212050E-001  1.821004631237420E-001  1.845447382548910E-001 
 1.870218219588880E-001  1.895321546126960E-001  1.920761825042850E-001  1.946543579119820E-001 
 1.972671391848720E-001  1.999149908242840E-001  2.025983835663730E-001  2.053177944658050E-001 
 2.080737069805680E-001  2.108666110579230E-001  2.136970032215080E-001  2.165653866596050E-001 
 2.194722713146030E-001  2.224181739736520E-001  2.254036183605380E-001  2.284291352287950E-001 
 2.314952624560550E-001  2.346025451396780E-001  2.377515356936600E-001  2.409427939468370E-001 
 2.441768872424140E-001  2.474543905388280E-001  2.507758865119650E-001  2.541419656587450E-001 
 2.575532264021040E-001  2.610102751973820E-001  2.645137266401340E-001  2.680642035754020E-001 
 2.716623372084360E-001  2.753087672169130E-001  2.790041418646610E-001  2.827491181169060E-001 
 2.865443617570670E-001  2.903905475051210E-001  2.942883591375530E-001  2.982384896089180E-001 
 3.022416411750380E-001  3.062985255178450E-001  3.104098638719070E-001  3.145763871526490E-001 
 3.187988360862950E-001  3.230779613415540E-001  3.274145236630740E-001  3.318092940066900E-001 
 3.362630536764820E-001  3.407765944636770E-001  3.453507187874140E-001  3.499862398373970E-001 
 3.546839817184660E-001  3.594447795971060E-001  3.642694798499240E-001  3.691589402141160E-001 
 3.741140299399570E-001  3.791356299453390E-001  3.842246329723760E-001  3.893819437461210E-001 
 3.946084791354070E-001  3.999051683158460E-001  4.052729529350190E-001  4.107127872798850E-001 
 4.162256384464340E-001  4.218124865116120E-001  4.274743247075710E-001  4.332121595982340E-001 
 4.390270112582490E-001  4.449199134543370E-001  4.508919138290750E-001  4.569440740871480E-001 
 4.630774701840990E-001  4.692931925176080E-001  4.755923461213500E-001  4.819760508614450E-001 
 4.884454416355490E-001  4.950016685746170E-001  5.016458972473710E-001  5.083793088675200E-001 
 5.152031005037520E-001  5.221184852925530E-001  5.291266926538750E-001  5.362289685097090E-001 
 5.434265755055790E-001  5.507207932350190E-001  5.581129184670570E-001  5.656042653767610E-001 
 5.731961657788660E-001  5.808899693645510E-001  5.886870439413840E-001  5.965887756764910E-001 
 6.045965693429920E-001  6.127118485697410E-001  6.209360560944180E-001  6.292706540200220E-001 
 6.377171240748020E-001  6.462769678756800E-001  6.549517071952110E-001  6.637428842321180E-001 
 6.726520618854760E-001  6.816808240325540E-001  6.908307758104010E-001  7.001035439012100E-001 
 7.095007768215090E-001  7.190241452152319E-001  7.286753421507330E-001  7.384560834217750E-001 
 7.483681078525670E-001  7.584131776068890E-001  7.685930785013780E-001  7.789096203230030E-001 
 7.893646371508160E-001  7.999599876820100E-001  8.106975555623650E-001  8.215792497211160E-001 
 8.326070047103280E-001  8.437827810488220E-001  8.551085655707150E-001  8.665863717786420E-001 
 8.782182402017120E-001  8.900062387582800E-001  9.019524631235830E-001  9.140590371023000E-001 
 9.263281130061410E-001  9.387618720364670E-001  9.513625246720760E-001  9.641323110621780E-001 
 9.770735014246510E-001  9.901883964496480E-001  1.003479327708600E+000  1.016948658068740E+000 
 1.030598782113160E+000  1.044432126566530E+000  1.058451150726520E+000  1.072658346901010E+000 
 1.087056240851190E+000  1.101647392240570E+000  1.116434395090050E+000  1.131419878239080E+000 
 1.146606505813010E+000  1.161996977696760E+000  1.177594030014750E+000  1.193400435617350E+000 
 1.209419004573870E+000  1.225652584672070E+000  1.242104061924510E+000  1.258776361081590E+000 
 1.275672446151520E+000  1.292795320927240E+000  1.310148029520490E+000  1.327733656902940E+000 
 1.345555329454660E+000  1.363616215519930E+000  1.381919525970520E+000  1.400468514776480E+000 
 1.419266479584680E+000  1.438316762305030E+000  1.457622749704650E+000  1.477187874009910E+000 
 1.497015613516670E+000  1.517109493208620E+000  1.537473085383950E+000  1.558110010290460E+000 
 1.579023936769160E+000  1.600218582906510E+000  1.621697716695410E+000  1.643465156705110E+000 
 1.665524772760050E+000  1.687880486627850E+000  1.710536272716540E+000  1.733496158781070E+000 
 1.756764226639440E+000  1.780344612898340E+000  1.804241509688540E+000  1.828459165410170E+000 
 1.853001885488050E+000  1.877874033137050E+000  1.903080030137810E+000  1.928624357622860E+000 
 1.954511556873230E+000  1.980746230125890E+000  2.007333041391820E+000  2.034276717285280E+000 
 2.061582047864060E+000  2.089253887481060E+000  2.117297155647320E+000  2.145716837906600E+000 
 2.174517986721700E+000  2.203705722372710E+000  2.233285233867300E+000  2.263261779863170E+000 
 2.293640689603020E+000  2.324427363861930E+000  2.355627275907510E+000  2.387245972472970E+000 
 2.419289074743190E+000  2.451762279354080E+000  2.484671359405330E+000  2.518022165486720E+000 
 2.551820626718300E+000  2.586072751804390E+000  2.620784630101910E+000  2.655962432702860E+000 
 2.691612413531450E+000  2.727740910455960E+000  2.764354346415440E+000  2.801459230561590E+000 
 2.839062159416000E+000  2.877169818042820E+000  2.915788981237300E+000  2.954926514730160E+000 
 2.994589376408210E+000  3.034784617551320E+000  3.075519384086000E+000  3.116800917855810E+000 
 3.158636557908810E+000  3.201033741802320E+000  3.244000006925130E+000  3.287542991837540E+000 
 3.331670437629320E+000  3.376390189295940E+000  3.421710197133260E+000  3.467638518150940E+000 
 3.514183317504770E+000  3.561352869948350E+000  3.609155561304110E+000  3.657599889954190E+000 