<UPF version="">
  <PP_INFO>
    From a Trail & Needs tabulated PP for CASINO
    Author: unknown
    Generation date: unknown
    Pseudopotential type: NC
    Element: O
    Functional: HF

    Suggested minimum cutoff for wavefunctions:   0. Ry
    Suggested minimum cutoff for charge density:   0. Ry
    The Pseudo was generated with a Non-Relativistic Calculation
    L component and cutoff radius for Local Potential:  2   0.0000

    Valence configuration: 
    nl pn  l   occ       Rcut    Rcut US       E pseu
    2s  2  0  2.00      0.000      0.000     0.000000
    2p  2  1  4.00      0.000      0.000     0.000000

    Generation configuration: not available.
    Comment:
    Info: automatically converted from CASINO Tabulated format
  </PP_INFO>
  <!--                               -->
  <!-- END OF HUMAN READABLE SECTION -->
  <!--                               -->
  <PP_HEADER generated="From a Trail &amp; Needs tabulated PP for CASINO"
             author="unknown"
             date="unknown"
             comment="Info: automatically converted from CASINO Tabulated format"
             element="O "
             pseudo_type="NC"
             relativistic="no"
             is_ultrasoft="F"
             is_paw="F"
             is_coulomb="F"
             has_so="F"
             has_wfc="F"
             has_gipaw="F"
             paw_as_gipaw="F"
             core_correction="F"
             functional="HF                       "
             z_valence="6.000000000000000E+000"
             total_psenergy="0.000000000000000E+000"
             wfc_cutoff="0.000000000000000E+000"
             rho_cutoff="0.000000000000000E+000"
             l_max="1"
             l_max_rho="0"
             l_local="2"
             mesh_size="1561"
             number_of_wfc="2"
             number_of_proj="2"/>
  <PP_MESH dx="1.333333333333333E-002" mesh="1561" xmin="-7.000000000000000E+000" rmax="1.012270311060500E+002"
zmesh="8.000000000000000E+000">
    <PP_R type="real" size="1561" columns="4">
 0.000000000000000E+000  1.258370494157100E-009  2.533631615520240E-009  3.826010080536390E-009 
 5.135735648780900E-009  6.463041163804340E-009  7.808162594527360E-009  9.171339077191489E-009 
 1.055281295787280E-008  1.195282983556650E-008  1.337163860584900E-008  1.480949150512750E-008 
 1.626664415548220E-008  1.774335561011090E-008  1.923988839938370E-008  2.075650857751590E-008 
 2.229348576986670E-008  2.385109322087410E-008  2.542960784263160E-008  2.702931026411840E-008 
 2.865048488108920E-008  3.029341990663460E-008  3.195840742241970E-008  3.364574343061020E-008 
 3.535572790649590E-008  3.708866485182080E-008  3.884486234882820E-008  4.062463261503180E-008 
 4.242829205872200E-008  4.425616133521700E-008  4.610856540386900E-008  4.798583358583560E-008 
 4.988829962262690E-008  5.181630173543770E-008  5.377018268527710E-008  5.575028983390450E-008 
 5.775697520558370E-008  5.979059554966580E-008  6.185151240401259E-008  6.394009215927050E-008 
 6.605670612400801E-008  6.820173059072680E-008  7.037554690275941E-008  7.257854152206420E-008 
 7.481110609793140E-008  7.707363753661010E-008  7.936653807187040E-008  8.169021533651330E-008 
 8.404508243483900E-008  8.643155801608950E-008  8.885006634887570E-008  9.130103739660430E-008 
 9.378490689391680E-008  9.630211642415480E-008  9.885311349786431E-008  1.014383516323550E-007 
 1.040582904323260E-007  1.067133956715770E-007  1.094041393758080E-007  1.121309999065420E-007 
 1.148944620461690E-007  1.176950170841230E-007  1.205331629042310E-007  1.234094040732270E-007 
 1.263242519304480E-007  1.292782246787470E-007  1.322718474766130E-007  1.353056525315410E-007 
 1.383801791946400E-007  1.414959740565280E-007  1.446535910444950E-007  1.478535915209910E-007 
 1.510965443834170E-007  1.543830261652670E-007  1.577136211386250E-007  1.610889214180350E-007 
 1.645095270657720E-007  1.679760461985130E-007  1.714890950954580E-007  1.750492983078860E-007 
 1.786572887701870E-007  1.823137079123930E-007  1.860192057742010E-007  1.897744411205480E-007 
 1.935800815587190E-007  1.974368036570360E-007  2.013452930651420E-007  2.053062446358920E-007 
 2.093203625488860E-007  2.133883604356600E-007  2.175109615065510E-007  2.216888986792740E-007 
 2.259229147092200E-007  2.302137623215000E-007  2.345622043447700E-007  2.389690138468410E-007 
 2.434349742721200E-007  2.479608795808890E-007  2.525475343904580E-007  2.571957541182050E-007 
 2.619063651265480E-007  2.666802048698480E-007  2.715181220433010E-007  2.764209767338130E-007 
 2.813896405729070E-007  2.864249968916880E-007  2.915279408778720E-007  2.966993797349420E-007 
 3.019402328434260E-007  3.072514319243470E-007  3.126339212048630E-007  3.180886575861330E-007 
 3.236166108134360E-007  3.292187636485720E-007  3.348961120445770E-007  3.406496653227850E-007 
 3.464804463522670E-007  3.523894917316730E-007  3.583778519735230E-007  3.644465916909640E-007 
 3.705967897870410E-007  3.768295396465040E-007  3.831459493301860E-007  3.895471417720010E-007 
 3.960342549785750E-007  4.026084422315650E-007  4.092708722926840E-007  4.160227296114930E-007 
 4.228652145359630E-007  4.297995435258790E-007  4.368269493691050E-007  4.439486814007420E-007 
 4.511660057252420E-007  4.584802054414940E-007  4.658925808709330E-007  4.734044497887130E-007 
 4.810171476579821E-007  4.887320278673010E-007  4.965504619712480E-007  5.044738399342550E-007 
 5.125035703777180E-007  5.206410808304190E-007  5.288878179823160E-007  5.372452479417320E-007 
 5.457148564960069E-007  5.542981493756329E-007  5.629966525219519E-007  5.718119123584330E-007 
 5.807454960655970E-007  5.897989918596330E-007  5.989740092747469E-007  6.082721794493140E-007 
 6.176951554158510E-007  6.272446123949050E-007  6.369222480928680E-007  6.467297830037960E-007 
 6.566689607152820E-007  6.667415482184299E-007  6.769493362219920E-007  6.872941394707200E-007 
 6.977777970679920E-007  7.084021728027710E-007  7.191691554809480E-007  7.300806592611330E-007 
 7.411386239949590E-007  7.523450155719480E-007  7.637018262690050E-007  7.752110751046110E-007 
 7.868748081977600E-007  7.986950991317200E-007  8.106740493226800E-007  8.228137883933340E-007 
 8.351164745514880E-007  8.475842949737530E-007  8.602194661943740E-007  8.730242344992890E-007 
 8.860008763254780E-007  8.991516986656660E-007  9.124790394784580E-007  9.259852681039920E-007 
 9.396727856851490E-007  9.535440255944380E-007  9.676014538665981E-007  9.818475696370140E-007 
 9.962849055860090E-007  1.010916028389110E-006  1.025743539173350E-006  1.040770073979700E-006 
 1.055998304231700E-006  1.071430937210390E-006  1.087070716535620E-006  1.102920422653780E-006 
 1.118982873332160E-006  1.135260924159850E-006  1.151757469055420E-006  1.168475440781410E-006 
 1.185417811465710E-006  1.202587593129970E-006  1.219987838225020E-006  1.237621640173610E-006 
 1.255492133920300E-006  1.273602496488820E-006  1.291955947546890E-006  1.310555749978580E-006 
 1.329405210464430E-006  1.348507680069270E-006  1.367866554838030E-006  1.387485276399410E-006 
 1.407367332577820E-006  1.427516258013380E-006  1.447935634790350E-006  1.468629093073930E-006 
 1.489600311755660E-006  1.510853019107420E-006  1.532390993444280E-006  1.554218063796170E-006 
 1.576338110588640E-006  1.598755066332720E-006  1.621472916324020E-006  1.644495699351270E-006 
 1.667827508414300E-006  1.691472491451730E-006  1.715434852078380E-006  1.739718850332580E-006 
 1.764328803433540E-006  1.789269086548840E-006  1.814544133572280E-006  1.840158437912130E-006 
 1.866116553289940E-006  1.892423094550160E-006  1.919082738480510E-006  1.946100224643470E-006 
 1.973480356218850E-006  2.001228000857690E-006  2.029348091547690E-006  2.057845627490140E-006 
 2.086725674988710E-006  2.115993368350130E-006  2.145653910796970E-006  2.175712575392670E-006 
 2.206174705979000E-006  2.237045718126060E-006  2.268331100095100E-006  2.300036413814200E-006 
 2.332167295867090E-006  2.364729458495190E-006  2.397728690613180E-006  2.431170858838130E-006 
 2.465061908532460E-006  2.499407864860940E-006  2.534214833861820E-006  2.569489003532370E-006 
 2.605236644929000E-006  2.641464113282090E-006  2.678177849125890E-006  2.715384379443470E-006 
 2.753090318827080E-006  2.791302370654160E-006  2.830027328279010E-006  2.869272076240520E-006 
 2.909043591486140E-006  2.949348944612230E-006  2.990195301121030E-006  3.031589922694630E-006 
 3.073540168485890E-006  3.116053496426760E-006  3.159137464554180E-006  3.202799732353740E-006 
 3.247048062121370E-006  3.291890320343350E-006  3.337334479094810E-006  3.383388617456980E-006 
 3.430060922953530E-006  3.477359693006150E-006  3.525293336409650E-006  3.573870374826860E-006 
 3.623099444303680E-006  3.672989296804320E-006  3.723548801767320E-006  3.774786947682260E-006 
 3.826712843687800E-006  3.879335721191120E-006  3.932664935509030E-006  3.986709967531190E-006 
 4.041480425405650E-006  4.096986046246950E-006  4.153236697867190E-006  4.210242380530380E-006 
 4.268013228730230E-006  4.326559512991920E-006  4.385891641697960E-006  4.446020162938600E-006 
 4.506955766387100E-006  4.568709285200110E-006  4.631291697943630E-006  4.694714130544740E-006 
 4.758987858269620E-006  4.824124307728030E-006  4.890135058904760E-006  4.957031847218320E-006 
 5.024826565607260E-006  5.093531266644540E-006  5.163158164680160E-006  5.233719638012710E-006 
 5.305228231089970E-006  5.377696656739040E-006  5.451137798426450E-006  5.525564712548610E-006 
 5.600990630752920E-006  5.677428962290160E-006  5.754893296398390E-006  5.833397404718790E-006 
 5.912955243744050E-006  5.993580957299530E-006  6.075288879057770E-006  6.158093535086720E-006 
 6.242009646432220E-006  6.327052131735060E-006  6.413236109883290E-006  6.500576902700010E-006 
 6.589090037667300E-006  6.678791250686740E-006  6.769696488876890E-006  6.861821913408390E-006 
 6.955183902377150E-006  7.049799053715980E-006  7.145684188145420E-006  7.242856352164140E-006 
 7.341332821079440E-006  7.441131102078480E-006  7.542268937340750E-006  7.644764307192211E-006 
 7.748635433301899E-006  7.853900781921360E-006  7.960579067167601E-006  8.068689254350060E-006 
 8.178250563342310E-006  8.289282471998960E-006  8.401804719618420E-006  8.515837310452190E-006 
 8.631400517261169E-006  8.748514884919849E-006  8.867201234068700E-006  8.987480664815710E-006 
 9.109374560487600E-006  9.232904591431281E-006  9.358092718866501E-006  9.484961198790079E-006 
 9.613532585932590E-006  9.743829737768131E-006  9.875875818578000E-006  1.000969430356880E-005 
 1.014530898304580E-005  1.028274396664260E-005  1.042202368760710E-005  1.056317290714540E-005 
 1.070621671882390E-005  1.085118055303030E-005  1.099809018149460E-005  1.114697172187120E-005 
 1.129785164238140E-005  1.145075676651970E-005  1.160571427782190E-005  1.176275172469820E-005 
 1.192189702533060E-005  1.208317847263600E-005  1.224662473929660E-005  1.241226488285680E-005 
 1.258012835088960E-005  1.275024498623140E-005  1.292264503228770E-005  1.309735913840960E-005 
 1.327441836534270E-005  1.345385419074930E-005  1.363569851480440E-005  1.381998366586650E-005 
 1.400674240622590E-005  1.419600793792810E-005  1.438781390867720E-005  1.458219441781780E-005 
 1.477918402239670E-005  1.497881774330690E-005  1.518113107151340E-005  1.538615997436310E-005 
 1.559394090197850E-005  1.580451079373860E-005  1.601790708484530E-005  1.623416771297910E-005 
 1.645333112504350E-005  1.667543628400010E-005  1.690052267579540E-005  1.712863031638080E-005 
 1.735979975882650E-005  1.759407210053120E-005  1.783148899052810E-005  1.807209263688960E-005 
 1.831592581423110E-005  1.856303187131510E-005  1.881345473875810E-005  1.906723893684070E-005 
 1.932442958342200E-005  1.958507240196090E-005  1.984921372964500E-005  2.011690052562820E-005 
 2.038818037937940E-005  2.066310151914250E-005  2.094171282051090E-005  2.122406381511650E-005 
 2.151020469943520E-005  2.180018634371120E-005  2.209406030100060E-005  2.239187881633640E-005 
 2.269369483601690E-005  2.299956201701820E-005  2.330953473653380E-005  2.362366810164110E-005 
 2.394201795909910E-005  2.426464090527660E-005  2.459159429621360E-005  2.492293625781860E-005 
 2.525872569620180E-005  2.559902230814770E-005  2.594388659172820E-005  2.629337985705750E-005 
 2.664756423719200E-005  2.700650269917670E-005  2.737025905523910E-005  2.773889797413370E-005 
 2.811248499263950E-005  2.849108652721010E-005  2.887476988578240E-005  2.926360327974150E-005 
 2.965765583604850E-005  3.005699760952870E-005  3.046169959532720E-005  3.087183374152950E-005 
 3.128747296195290E-005  3.170869114910900E-005  3.213556318734060E-005  3.256816496613410E-005 
 3.300657339361200E-005  3.345086641020490E-005  3.390112300250800E-005  3.435742321732380E-005 
 3.481984817589200E-005  3.528848008831230E-005  3.576340226815880E-005  3.624469914729210E-005 
 3.673245629086950E-005  3.722676041255670E-005  3.772769938994380E-005  3.823536228016850E-005 
 3.874983933574830E-005  3.927122202062570E-005  3.979960302642920E-005  4.033507628895130E-005 
 4.087773700484910E-005  4.142768164856800E-005  4.198500798949300E-005  4.254981510933040E-005 
 4.312220341972240E-005  4.370227468009840E-005  4.429013201576570E-005  4.488587993624350E-005 
 4.548962435384210E-005  4.610147260249270E-005  4.672153345682870E-005  4.734991715152390E-005 
 4.798673540089010E-005  4.863210141873800E-005  4.928612993850360E-005  4.994893723364630E-005 
 5.062064113831990E-005  5.130136106832100E-005  5.199121804231890E-005  5.269033470337040E-005 
 5.339883534072300E-005  5.411684591191180E-005  5.484449406515150E-005  5.558190916203030E-005 
 5.632922230050760E-005  5.708656633822070E-005  5.785407591610430E-005  5.863188748232700E-005 
 5.942013931654920E-005  6.021897155450620E-005  6.102852621292230E-005  6.184894721475761E-005 
 6.268038041479560E-005  6.352297362557269E-005  6.437687664365660E-005  6.524224127627730E-005 
 6.611922136831551E-005  6.700797282965269E-005  6.790865366288931E-005  6.882142399143489E-005 
 6.974644608797380E-005  7.068388440331520E-005  7.163390559562850E-005  7.259667856007219E-005 
 7.357237445882029E-005  7.456116675149109E-005  7.556323122598520E-005  7.657874602973750E-005 
 7.760789170138770E-005  7.865085120287670E-005  7.970780995197399E-005  8.077895585524090E-005 
 8.186447934143691E-005  8.296457339537430E-005  8.407943359222660E-005  8.520925813229830E-005 
 8.635424787626130E-005  8.751460638086340E-005  8.869053993511700E-005  8.988225759697341E-005 
 9.108997123048909E-005  9.231389554349050E-005  9.355424812574610E-005  9.481124948764820E-005 
 9.608512309941620E-005  9.737609543082520E-005  9.868439599146741E-005  1.000102573715550E-004 
 1.013539152832700E-004  1.027156086026680E-004  1.040955794121490E-004  1.054940730434900E-004 
 1.069113381214660E-004  1.083476266080440E-004  1.098031938471840E-004  1.112782986102270E-004 
 1.127732031419070E-004  1.142881732069650E-004  1.158234781374030E-004  1.173793908803640E-004 
 1.189561880466550E-004  1.205541499599260E-004  1.221735607065030E-004  1.238147081858950E-004 
 1.254778841619760E-004  1.271633843148570E-004  1.288715082934470E-004  1.306025597687300E-004 
 1.323568464877510E-004  1.341346803283240E-004  1.359363773544800E-004  1.377622578726600E-004 
 1.396126464886520E-004  1.414878721653060E-004  1.433882682810150E-004  1.453141726889820E-004 
 1.472659277772860E-004  1.492438805297490E-004  1.512483825876260E-004  1.532797903121180E-004 
 1.553384648477250E-004  1.574247721864540E-004  1.595390832328830E-004  1.616817738700990E-004 
 1.638532250265250E-004  1.660538227436410E-004  1.682839582446160E-004  1.705440280038570E-004 
 1.728344338174950E-004  1.751555828748190E-004  1.775078878306630E-004  1.798917668787710E-004 
 1.823076438261400E-004  1.847559481683690E-004  1.872371151660110E-004  1.897515859219560E-004 
 1.922998074598490E-004  1.948822328035660E-004  1.974993210577450E-004  2.001515374894140E-004 
 2.028393536107010E-004  2.055632472626630E-004  2.083237027002340E-004  2.111212106783180E-004 
 2.139562685390340E-004  2.168293803001360E-004  2.197410567446150E-004  2.226918155115070E-004 
 2.256821811879210E-004  2.287126854022970E-004  2.317838669189210E-004  2.348962717337070E-004 
 2.380504531712650E-004  2.412469719832680E-004  2.444863964481460E-004  2.477693024721140E-004 
 2.510962736915550E-004  2.544679015767820E-004  2.578847855371890E-004  2.613475330278120E-004 
 2.648567596573240E-004  2.684130892974800E-004  2.720171541940280E-004  2.756695950791070E-004 
 2.793710612851620E-004  2.831222108603770E-004  2.869237106856680E-004  2.907762365932390E-004 
 2.946804734867300E-004  2.986371154629830E-004  3.026468659354380E-004  3.067104377591840E-004 
 3.108285533576900E-004  3.150019448512440E-004  3.192313541871030E-004  3.235175332713980E-004 
 3.278612441028120E-004  3.322632589080430E-004  3.367243602790960E-004  3.412453413124080E-004 
 3.458270057498470E-004  3.504701681216030E-004  3.551756538909930E-004  3.599442996012140E-004 
 3.647769530240630E-004  3.696744733106530E-004  3.746377311441570E-004  3.796676088945960E-004 
 3.847650007757050E-004  3.899308130039110E-004  3.951659639594380E-004  4.004713843495770E-004 
 4.058480173741480E-004  4.112968188931840E-004  4.168187575968610E-004  4.224148151777140E-004 
 4.280859865051620E-004  4.338332798023790E-004  4.396577168255310E-004  4.455603330454300E-004 
 4.515421778316170E-004  4.576043146389200E-004  4.637478211965140E-004  4.699737896995240E-004 
 4.762833270031910E-004  4.826775548196570E-004  4.891576099173720E-004  4.957246443231990E-004 
 5.023798255272170E-004  5.091243366902790E-004  5.159593768543550E-004  5.228861611557000E-004 
 5.299059210408759E-004  5.370199044856840E-004  5.442293762170310E-004  5.515356179377640E-004 
 5.589399285545480E-004  5.664436244087680E-004  5.740480395105630E-004  5.817545257759780E-004 
 5.895644532673140E-004  5.974792104366920E-004  6.055002043729010E-004  6.136288610515450E-004 
 6.218666255885510E-004  6.302149624970900E-004  6.386753559479330E-004  6.472493100333080E-004 
 6.559383490343030E-004  6.647440176918470E-004  6.736678814813370E-004  6.827115268909510E-004 
 6.918765617036910E-004  7.011646152832170E-004  7.105773388635180E-004  7.201164058424660E-004 
 7.297835120793140E-004  7.395803761961870E-004  7.495087398836170E-004  7.595703682101910E-004 
 7.697670499363310E-004  7.801005978323100E-004  7.905728490005270E-004  8.011856652021040E-004 
 8.119409331878720E-004  8.228405650338010E-004  8.338864984809260E-004  8.450806972798400E-004 
 8.564251515398140E-004  8.679218780825930E-004  8.795729208009539E-004  8.913803510220670E-004 
 9.033462678757350E-004  9.154727986675820E-004  9.277620992572410E-004  9.402163544416300E-004 
 9.528377783433580E-004  9.656286148043641E-004  9.785911377848170E-004  9.917276517673870E-004 
 1.005040492166940E-003  1.018532025745710E-003  1.032204651034090E-003  1.046060798757050E-003 
 1.060102932266210E-003  1.074333547977860E-003  1.088755175816710E-003  1.103370379665700E-003 
 1.118181757821770E-003  1.133191943457840E-003  1.148403605090880E-003  1.163819447056360E-003 
 1.179442209989010E-003  1.195274671310050E-003  1.211319645720970E-003  1.227579985703930E-003 
 1.244058582028850E-003  1.260758364267380E-003  1.277682301313670E-003  1.294833401912210E-003 
 1.312214715192740E-003  1.329829331212270E-003  1.347680381504490E-003  1.365771039636480E-003 
 1.384104521772870E-003  1.402684087247660E-003  1.421513039143660E-003  1.440594724879680E-003 
 1.459932536805670E-003  1.479529912805770E-003  1.499390336909580E-003  1.519517339911440E-003 
 1.539914499998250E-003  1.560585443385520E-003  1.581533844962070E-003  1.602763428943350E-003 
 1.624277969533530E-003  1.646081291596510E-003  1.668177271335850E-003  1.690569836983920E-003 
 1.713262969500260E-003  1.736260703279300E-003  1.759567126867610E-003  1.783186383690790E-003 
 1.807122672790020E-003  1.831380249568640E-003  1.855963426548620E-003  1.880876574137280E-003 
 1.906124121404260E-003  1.931710556868910E-003  1.957640429298230E-003  1.983918348515640E-003 
 2.010548986220420E-003  2.037537076818300E-003  2.064887418263130E-003  2.092604872909870E-003 
 2.120694368379020E-003  2.149160898432650E-003  2.178009523862170E-003  2.207245373388090E-003 
 2.236873644571770E-003  2.266899604739460E-003  2.297328591918710E-003  2.328166015787380E-003 
 2.359417358635380E-003  2.391088176339300E-003  2.423184099350150E-003  2.455710833694330E-003 
 2.488674161988050E-003  2.522079944465390E-003  2.555934120020110E-003  2.590242707261460E-003 
 2.625011805584200E-003  2.660247596252950E-003  2.695956343501070E-003  2.732144395644330E-003 
 2.768818186209560E-003  2.805984235078300E-003  2.843649149646050E-003  2.881819625996810E-003 
 2.920502450093570E-003  2.959704498984720E-003  2.999432742026640E-003  3.039694242122730E-003 
 3.080496156979060E-003  3.121845740376820E-003  3.163750343461990E-003  3.206217416052130E-003 
 3.249254507960890E-003  3.292869270340180E-003  3.337069457040420E-003  3.381862925988960E-003 
 3.427257640587180E-003  3.473261671126090E-003  3.519883196221190E-003  3.567130504266390E-003 
 3.615011994907570E-003  3.663536180535840E-003  3.712711687800870E-003  3.762547259144600E-003 
 3.813051754355400E-003  3.864234152143230E-003  3.916103551735820E-003  3.968669174496380E-003 
 4.021940365562950E-003  4.075926595509810E-003  4.130637462031120E-003  4.186082691647270E-003 
 4.242272141433980E-003  4.299215800774770E-003  4.356923793136830E-003  4.415406377870790E-003 
 4.474673952034620E-003  4.534737052242060E-003  4.595606356535780E-003  4.657292686285750E-003 
 4.719807008113050E-003  4.783160435839540E-003  4.847364232463690E-003  4.912429812162880E-003 
 4.978368742322640E-003  5.045192745593110E-003  5.112913701973100E-003  5.181543650922090E-003 
 5.251094793500670E-003  5.321579494539570E-003  5.393010284837960E-003  5.465399863391130E-003 
 5.538761099648150E-003  5.613107035799790E-003  5.688450889097170E-003  5.764806054201550E-003 
 5.842186105565600E-003  5.920604799846690E-003  6.000076078352570E-003  6.080614069519820E-003 
 6.162233091425680E-003  6.244947654333440E-003  6.328772463272140E-003  6.413722420650810E-003 
 6.499812628907810E-003  6.587058393195820E-003  6.675475224102720E-003  6.765078840409080E-003 
 6.855885171882700E-003  6.947910362110540E-003  7.041170771368800E-003  7.135682979531420E-003 
 7.231463789017670E-003  7.328530227779260E-003  7.426899552327630E-003  7.526589250801780E-003 
 7.627617046077320E-003  7.730000898917300E-003  7.833759011165189E-003  7.938909828980880E-003 
 8.045472046120061E-003  8.153464607257519E-003  8.262906711355230E-003  8.373817815075509E-003 
 8.486217636240009E-003  8.600126157335200E-003  8.715563629064839E-003  8.832550573950160E-003 
 8.951107789978340E-003  9.071256354300070E-003  9.193017626976560E-003  9.316413254776961E-003 
 9.441465175026770E-003  9.568195619507809E-003  9.696627118410709E-003  9.826782504340161E-003 
 9.958684916374239E-003  1.009235780417800E-002  1.022782493217260E-002  1.036511038375960E-002 
 1.050423856560320E-002  1.064523421196880E-002  1.078812238912050E-002  1.093292849977710E-002 
 1.107967828762870E-002  1.122839784191280E-002  1.137911360205310E-002  1.153185236235950E-002 
 1.168664127679150E-002  1.184350786378610E-002  1.200248001114980E-002  1.216358598101610E-002 
 1.232685441487090E-002  1.249231433864350E-002  1.265999516786720E-002  1.282992671290880E-002 
 1.300213918426830E-002  1.317666319794980E-002  1.335352978090430E-002  1.353277037654560E-002 
 1.371441685034060E-002  1.389850149547420E-002  1.408505703859030E-002  1.427411664561020E-002 
 1.446571392762860E-002  1.465988294688920E-002  1.485665822284010E-002  1.505607473827080E-002 
 1.525816794553160E-002  1.546297377283600E-002  1.567052863064820E-002  1.588086941815630E-002 
 1.609403352983210E-002  1.631005886207900E-002  1.652898381996960E-002  1.675084732407290E-002 
 1.697568881737400E-002  1.720354827228610E-002  1.743446619775690E-002  1.766848364647020E-002 
 1.790564222214430E-002  1.814598408692840E-002  1.838955196889820E-002  1.863638916965200E-002 
 1.888653957200880E-002  1.914004764781020E-002  1.939695846582620E-002  1.965731769976770E-002 
 1.992117163640660E-002  2.018856718380420E-002  2.045955187965110E-002  2.073417389971790E-002 
 2.101248206642040E-002  2.129452585749900E-002  2.158035541481510E-002  2.187002155326480E-002 
 2.216357576981350E-002  2.246107025265060E-002  2.276255789046780E-002  2.306809228186130E-002 
 2.337772774486100E-002  2.369151932658690E-002  2.400952281303560E-002  2.433179473899770E-002 
 2.465839239810890E-002  2.498937385303550E-002  2.532479794579660E-002  2.566472430822560E-002 
 2.600921337257100E-002  2.635832638224040E-002  2.671212540268850E-002  2.707067333245070E-002 
 2.743403391432540E-002  2.780227174670650E-002  2.817545229506730E-002  2.855364190359930E-002 
 2.893690780700680E-002  2.932531814245980E-002  2.971894196170750E-002  3.011784924335460E-002 
 3.052211090530170E-002  3.093179881735350E-002  3.134698581399560E-002  3.176774570734310E-002 
 3.219415330026300E-002  3.262628439967270E-002  3.306421583001680E-002  3.350802544692530E-002 
 3.395779215105450E-002  3.441359590211410E-002  3.487551773308260E-002  3.534363976461330E-002 
 3.581804521963340E-002  3.629881843814020E-002  3.678604489219410E-002  3.727981120111470E-002 
 3.778020514687970E-002  3.828731568973060E-002  3.880123298398840E-002  3.932204839408120E-002 
 3.984985451078690E-002  4.038474516769430E-002  4.092681545788430E-002  4.147616175083620E-002 
 4.203288170956020E-002  4.259707430795960E-002  4.316883984842670E-002  4.374827997967460E-002 
 4.433549771480820E-002  4.493059744963820E-002  4.553368498124050E-002  4.614486752676450E-002 
 4.676425374249460E-002  4.739195374316740E-002  4.802807912154710E-002  4.867274296826520E-002 
 4.932605989192590E-002  4.998814603948070E-002  5.065911911687730E-002  5.133909840998560E-002 
 5.202820480580420E-002  5.272656081395160E-002  5.343429058844640E-002  5.415151994977920E-002 
 5.487837640728110E-002  5.561498918179210E-002  5.636148922863430E-002  5.711800926089350E-002 
 5.788468377301230E-002  5.866164906470100E-002  5.944904326516870E-002  6.024700635768070E-002 
 6.105568020444360E-002  6.187520857182710E-002  6.270573715592140E-002  6.354741360844000E-002 
 6.440038756296899E-002  6.526481066156910E-002  6.614083658173429E-002  6.702862106371360E-002 
 6.792832193819739E-002  6.884009915437730E-002  6.976411480838220E-002  7.070053317209510E-002 
 7.164952072235820E-002  7.261124617056890E-002  7.358588049267301E-002  7.457359695956139E-002 
 7.557457116787410E-002  7.658898107121770E-002  7.761700701180220E-002  7.865883175250270E-002 
 7.971464050935030E-002  8.078462098446010E-002  8.186896339940131E-002  8.296786052901479E-002 
 8.408150773568450E-002  8.521010300406920E-002  8.635384697630009E-002  8.751294298765130E-002 
 8.868759710268860E-002  8.987801815190390E-002  9.108441776884160E-002  9.230701042772189E-002 
 9.354601348157079E-002  9.480164720086121E-002  9.607413481267230E-002  9.736370254037530E-002 
 9.867057964385199E-002  9.999499846025130E-002  1.013371944452960E-001  1.026974062151390E-001 
 1.040758755887910E-001  1.054728476311030E-001  1.068885706963390E-001  1.083232964723300E-001 
 1.097772800252140E-001  1.112507798447850E-001  1.127440578904480E-001  1.142573796377880E-001 
 1.157910141257680E-001  1.173452340045580E-001  1.189203155840090E-001  1.205165388827720E-001 
 1.221341876780810E-001  1.237735495562060E-001  1.254349159635750E-001  1.271185822585930E-001 
 1.288248477641450E-001  1.305540158208160E-001  1.323063938408140E-001  1.340822933626260E-001 
 1.358820301063990E-001  1.377059240300710E-001  1.395542993862560E-001  1.414274847798850E-001 
 1.433258132266270E-001  1.452496222120950E-001  1.471992537518440E-001  1.491750544521690E-001 
 1.511773755717330E-001  1.532065730840090E-001  1.552630077405640E-001  1.573470451351990E-001 
 1.594590557689400E-001  1.615994151159050E-001  1.637685036900610E-001  1.659667071128670E-001 
 1.681944161818320E-001  1.704520269399920E-001  1.727399407463150E-001  1.750585643470600E-001 
 1.774083099480850E-001  1.797895952881290E-001  1.822028437130810E-001  1.846484842512390E-001 
 1.871269516895840E-001  1.896386866510770E-001  1.921841356729940E-001  1.947637512863080E-001 
 1.973779920961450E-001  2.000273228633130E-001  2.027122145869260E-001  2.054331445881380E-001 
 2.081905965950060E-001  2.109850608284820E-001  2.138170340895670E-001  2.166870198476330E-001 
 2.195955283299300E-001  2.225430766122930E-001  2.255301887110670E-001  2.285573956762710E-001 
 2.316252356860060E-001  2.347342541421310E-001  2.378850037672260E-001  2.410780447028570E-001 
 2.443139446091540E-001  2.475932787657360E-001  2.509166301739780E-001  2.542845896606600E-001 
 2.576977559830080E-001  2.611567359351330E-001  2.646621444559150E-001  2.682146047383250E-001 
 2.718147483402130E-001  2.754632152965890E-001  2.791606542334120E-001  2.829077224828960E-001 
 2.867050862003780E-001  2.905534204827410E-001  2.944534094884390E-001  2.984057465591210E-001 
 3.024111343428980E-001  3.064702849192600E-001  3.105839199256660E-001  3.147527706858400E-001 
 3.189775783397870E-001  3.232590939755490E-001  3.275980787627390E-001  3.319953040878570E-001 
 3.364515516914310E-001  3.409676138069950E-001  3.455442933019300E-001  3.501824038201990E-001 
 3.548827699270000E-001  3.596462272553530E-001  3.644736226546630E-001  3.693658143412700E-001 
 3.743236720510260E-001  3.793480771939150E-001  3.844399230107500E-001  3.896001147319760E-001 
 3.948295697386020E-001  4.001292177252900E-001  4.055000008656410E-001  4.109428739796920E-001 
 4.164588047036650E-001  4.220487736619920E-001  4.277137746416580E-001  4.334548147688670E-001 